Program Version,EnergyPlus, Version 8.2.0-e53a815bb2, YMD=2015.06.17 14:35
1,5,Environment Title[],Latitude[deg],Longitude[deg],Time Zone[],Elevation[m]
2,6,Day of Simulation[],Month[],Day of Month[],DST Indicator[1=yes 0=no],Hour[],StartMinute[],EndMinute[],DayType
3,3,Cumulative Day of Simulation[],Month[],Day of Month[],DST Indicator[1=yes 0=no],DayType  ! When Daily Report Variables Requested
4,2,Cumulative Days of Simulation[],Month[]  ! When Monthly Report Variables Requested
5,1,Cumulative Days of Simulation[] ! When Run Period Report Variables Requested
98,1,DPVWALL:1157026,Surface Inside Face Temperature [C] !Hourly
99,11,DPVWALL:1157026,Surface Inside Face Conduction Heat Gain Rate [W] !RunPeriod [Value,Min,Month,Day,Hour,Minute,Max,Month,Day,Hour,Minute]
100,11,DPVWALL:1157026,Surface Inside Face Conduction Heat Loss Rate [W] !RunPeriod [Value,Min,Month,Day,Hour,Minute,Max,Month,Day,Hour,Minute]
101,1,DPVWALL:1157027,Surface Inside Face Temperature [C] !Hourly
102,11,DPVWALL:1157027,Surface Inside Face Conduction Heat Gain Rate [W] !RunPeriod [Value,Min,Month,Day,Hour,Minute,Max,Month,Day,Hour,Minute]
103,11,DPVWALL:1157027,Surface Inside Face Conduction Heat Loss Rate [W] !RunPeriod [Value,Min,Month,Day,Hour,Minute,Max,Month,Day,Hour,Minute]
104,1,DPVWALL:1157028,Surface Inside Face Temperature [C] !Hourly
105,11,DPVWALL:1157028,Surface Inside Face Conduction Heat Gain Rate [W] !RunPeriod [Value,Min,Month,Day,Hour,Minute,Max,Month,Day,Hour,Minute]
106,11,DPVWALL:1157028,Surface Inside Face Conduction Heat Loss Rate [W] !RunPeriod [Value,Min,Month,Day,Hour,Minute,Max,Month,Day,Hour,Minute]
107,1,DPVWALL:1157029,Surface Inside Face Temperature [C] !Hourly
108,11,DPVWALL:1157029,Surface Inside Face Conduction Heat Gain Rate [W] !RunPeriod [Value,Min,Month,Day,Hour,Minute,Max,Month,Day,Hour,Minute]
109,11,DPVWALL:1157029,Surface Inside Face Conduction Heat Loss Rate [W] !RunPeriod [Value,Min,Month,Day,Hour,Minute,Max,Month,Day,Hour,Minute]
110,1,DPVFLOOR:1157042,Surface Inside Face Temperature [C] !Hourly
111,11,DPVFLOOR:1157042,Surface Inside Face Conduction Heat Gain Rate [W] !RunPeriod [Value,Min,Month,Day,Hour,Minute,Max,Month,Day,Hour,Minute]
112,11,DPVFLOOR:1157042,Surface Inside Face Conduction Heat Loss Rate [W] !RunPeriod [Value,Min,Month,Day,Hour,Minute,Max,Month,Day,Hour,Minute]
113,1,DPVROOF:1157058.0,Surface Inside Face Temperature [C] !Hourly
114,11,DPVROOF:1157058.0,Surface Inside Face Conduction Heat Gain Rate [W] !RunPeriod [Value,Min,Month,Day,Hour,Minute,Max,Month,Day,Hour,Minute]
115,11,DPVROOF:1157058.0,Surface Inside Face Conduction Heat Loss Rate [W] !RunPeriod [Value,Min,Month,Day,Hour,Minute,Max,Month,Day,Hour,Minute]
116,1,DPVROOF:1157058.1,Surface Inside Face Temperature [C] !Hourly
117,11,DPVROOF:1157058.1,Surface Inside Face Conduction Heat Gain Rate [W] !RunPeriod [Value,Min,Month,Day,Hour,Minute,Max,Month,Day,Hour,Minute]
118,11,DPVROOF:1157058.1,Surface Inside Face Conduction Heat Loss Rate [W] !RunPeriod [Value,Min,Month,Day,Hour,Minute,Max,Month,Day,Hour,Minute]
119,1,DPVROOF:1157058.2,Surface Inside Face Temperature [C] !Hourly
120,11,DPVROOF:1157058.2,Surface Inside Face Conduction Heat Gain Rate [W] !RunPeriod [Value,Min,Month,Day,Hour,Minute,Max,Month,Day,Hour,Minute]
121,11,DPVROOF:1157058.2,Surface Inside Face Conduction Heat Loss Rate [W] !RunPeriod [Value,Min,Month,Day,Hour,Minute,Max,Month,Day,Hour,Minute]
122,1,DPVROOF:1157058.3,Surface Inside Face Temperature [C] !Hourly
123,11,DPVROOF:1157058.3,Surface Inside Face Conduction Heat Gain Rate [W] !RunPeriod [Value,Min,Month,Day,Hour,Minute,Max,Month,Day,Hour,Minute]
124,11,DPVROOF:1157058.3,Surface Inside Face Conduction Heat Loss Rate [W] !RunPeriod [Value,Min,Month,Day,Hour,Minute,Max,Month,Day,Hour,Minute]
125,1,DEFAULT_ZONE,Zone Mean Air Temperature [C] !Hourly
188,1,Heating:EnergyTransfer [J] !TimeStep
End of Data Dictionary
1,Zuerich-Kloten - - MN7 WMO#=999,  47.48,   8.54,   1.00, 436.00
2,1, 1, 1, 0, 1, 0.00,60.00,Tuesday
188,36250954.1655771
2,1, 1, 1, 0, 1, 0.00,60.00,Tuesday
98,18.5981379904297
101,18.6032545793289
104,18.6020813304363
107,18.6010874933346
110,19.287938576806
113,18.8073817772258
116,18.8103893635869
119,18.8064396831815
122,18.8115511688063
125,20.0000000000001
2,1, 1, 1, 0, 2, 0.00,60.00,Tuesday
188,37113762.0186286
2,1, 1, 1, 0, 2, 0.00,60.00,Tuesday
98,18.5913101596456
101,18.5963096194434
104,18.5951985981468
107,18.5942196164926
110,19.2825587099869
113,18.8049134072291
116,18.8078776139142
119,18.8040098633528
122,18.8090835551722
125,20.
2,1, 1, 1, 0, 3, 0.00,60.00,Tuesday
188,36609795.0813317
2,1, 1, 1, 0, 3, 0.00,60.00,Tuesday
98,18.5857311961818
101,18.5906259847131
104,18.5895566360404
107,18.588597075421
110,19.277144521608
113,18.8018887098048
116,18.8048296645004
119,18.8010288724668
122,18.806091619373
125,20.0000000000001
2,1, 1, 1, 0, 4, 0.00,60.00,Tuesday
188,35292649.70658
2,1, 1, 1, 0, 4, 0.00,60.00,Tuesday
98,18.5810991074546
101,18.5859058510856
104,18.5848571978157
107,18.5839196731495
110,19.2717652243252
113,18.7980072423285
116,18.8009634311421
119,18.7971932619843
122,18.8022973524868
125,20.0000000000001
2,1, 1, 1, 0, 5, 0.00,60.00,Tuesday
188,34665427.6392566
2,1, 1, 1, 0, 5, 0.00,60.00,Tuesday
98,18.5771013072631
101,18.5818427294278
104,18.5807933210799
107,18.5798764189377
110,19.2664336043794
113,18.7929941892788
116,18.7959935302215
119,18.7922250692203
122,18.7974153330026
125,20.0000000000001
2,1, 1, 1, 0, 6, 0.00,60.00,Tuesday
188,33774987.2838598
2,1, 1, 1, 0, 6, 0.00,60.00,Tuesday
98,18.5734251837681
101,18.5781309903294
104,18.5770589635829
107,18.5761560300407
110,19.261146861843
113,18.786804896811
116,18.7898400248676
119,18.7860726156527
122,18.7913604544056
125,20.
2,1, 1, 1, 0, 7, 0.00,60.00,Tuesday
188,32223162.2851579
2,1, 1, 1, 0, 7, 0.00,60.00,Tuesday
98,18.5748327838867
101,18.5795385164742
104,18.5784215692744
107,18.5775223570718
110,19.2579729601689
113,18.782594699946
116,18.7856394832643
119,18.7818877437802
122,18.7872629737092
125,20.
2,1, 1, 1, 0, 8, 0.00,60.00,Tuesday
188,28580489.7721774
2,1, 1, 1, 0, 8, 0.00,60.00,Tuesday
98,18.5961639165352
101,18.600912047045
104,18.5997233397447
107,18.5988195101432
110,19.2625971393882
113,18.7885009855203
116,18.7915374574826
119,18.7878159778931
122,18.7932635593417
125,20.0000000000001
2,1, 1, 1, 0, 9, 0.00,60.00,Tuesday
188,21865372.8699328
2,1, 1, 1, 0, 9, 0.00,60.00,Tuesday
98,18.6415511634526
101,18.6463851399743
104,18.6450982873781
107,18.6441857260082
110,19.2760368871786
113,18.8051674917001
116,18.8081953085604
119,18.8045129338378
122,18.8100173165621
125,20.
2,1, 1, 1, 0,10, 0.00,60.00,Tuesday
188,50424931.6036717
2,1, 1, 1, 0,10, 0.00,60.00,Tuesday
98,18.6830538652636
101,18.6880082426094
104,18.6866009903347
107,18.6856778155544
110,19.2871589202156
113,18.8159179178581
116,18.818953894604
119,18.8153061263598
122,18.8208607467966
125,20.0000000000001
2,1, 1, 1, 0,11, 0.00,60.00,Tuesday
188,47018946.7818514
2,1, 1, 1, 0,11, 0.00,60.00,Tuesday
98,18.7099628880225
101,18.71505865522
104,18.7135165030095
107,18.7125815301512
110,19.2937376386703
113,18.8191052558214
116,18.8221857140932
119,18.8185225162427
122,18.8241446702825
125,20.0000000000002
2,1, 1, 1, 0,12, 0.00,60.00,Tuesday
188,24425749.5825709
2,1, 1, 1, 0,12, 0.00,60.00,Tuesday
98,18.7190242428309
101,18.7242649219744
104,18.7225882089047
107,18.7216404031848
110,19.295400142448
113,18.8157917279276
116,18.8189511525578
119,18.8152039207232
122,18.8209084341321
125,20.0000000000001
2,1, 1, 1, 0,13, 0.00,60.00,Tuesday
188,24213602.0429881
2,1, 1, 1, 0,13, 0.00,60.00,Tuesday
98,18.7208407083466
101,18.7262273238561
104,18.7244227919449
107,18.7234637757981
110,19.2962198873732
113,18.8129604839567
116,18.8162072792144
119,18.8123345063832
122,18.8180966738966
125,20.
2,1, 1, 1, 0,14, 0.00,60.00,Tuesday
188,1146901.31045107
2,1, 1, 1, 0,14, 0.00,60.00,Tuesday
98,18.7369194830147
101,18.7424515951428
104,18.7405355294428
107,18.7395696785837
110,19.3039302637866
113,18.8218409876415
116,18.8251670297573
119,18.8211469273206
122,18.8269236250972
125,20.
2,1, 1, 1, 0,15, 0.00,60.00,Tuesday
188,45787998.3149373
2,1, 1, 1, 0,15, 0.00,60.00,Tuesday
98,18.747347183316
101,18.7530039214968
104,18.7510138454466
107,18.7500449272795
110,19.3090384441133
113,18.827413864355
116,18.8308026768759
119,18.8266389842347
122,18.8323985485775
125,20.
2,1, 1, 1, 0,16, 0.00,60.00,Tuesday
188,44940623.5437833
2,1, 1, 1, 0,16, 0.00,60.00,Tuesday
98,18.7846918775918
101,18.790457719032
104,18.7884286290652
107,18.7874634680097
110,19.3254060677727
113,18.850097368871
116,18.8535291872073
119,18.849241816136
122,18.854962371216
125,20.
2,1, 1, 1, 0,17, 0.00,60.00,Tuesday
188,45505495.890495
2,1, 1, 1, 0,17, 0.00,60.00,Tuesday
98,18.8101132137479
101,18.8159562176656
104,18.8139301621636
107,18.8129724125267
110,19.3357526993028
113,18.862745022535
116,18.8661938902758
119,18.8618239813181
122,18.8674848364812
125,19.9999999999999
2,1, 1, 1, 0,18, 0.00,60.00,Tuesday
188,2100254.82170725
2,1, 1, 1, 0,18, 0.00,60.00,Tuesday
98,18.7884710654413
101,18.7943407325176
104,18.7923651633305
107,18.7914108804392
110,19.3284309931168
113,18.8498939142763
116,18.8533283580204
119,18.8489270660043
122,18.8545095298278
125,20.
2,1, 1, 1, 0,19, 0.00,60.00,Tuesday
188,8957165.58846658
2,1, 1, 1, 0,19, 0.00,60.00,Tuesday
98,18.7248036586022
101,18.7306376886844
104,18.728759933631
107,18.7277986888973
110,19.3076219625468
113,18.8202119002592
116,18.8236004998537
119,18.8192154181782
122,18.8247101762898
125,20.
2,1, 1, 1, 0,20, 0.00,60.00,Tuesday
188,10007070.3621321
2,1, 1, 1, 0,20, 0.00,60.00,Tuesday
98,18.6824040533684
101,18.6881584780823
104,18.6864036924534
107,18.6854323268057
110,19.2973689560157
113,18.8094964669139
116,18.8128200274781
119,18.8084849902436
122,18.8138921472394
125,20.
2,1, 1, 1, 0,21, 0.00,60.00,Tuesday
188,25128189.0641358
2,1, 1, 1, 0,21, 0.00,60.00,Tuesday
98,18.6546039156877
101,18.6602502267914
104,18.6586276744037
107,18.6576469746765
110,19.2907110931034
113,18.804660973123
116,18.8079106575399
119,18.8036476249762
122,18.8089702796209
125,20.
2,1, 1, 1, 0,22, 0.00,60.00,Tuesday
188,24815043.5333883
2,1, 1, 1, 0,22, 0.00,60.00,Tuesday
98,18.6407663524597
101,18.6462897137594
104,18.6447952362948
107,18.6438096975489
110,19.2874260177772
113,18.8047829710162
116,18.8079587497016
119,18.803778834304
122,18.8090232649711
125,20.
2,1, 1, 1, 0,23, 0.00,60.00,Tuesday
188,26980135.5886744
2,1, 1, 1, 0,23, 0.00,60.00,Tuesday
98,18.6134137748432
101,18.6188035225627
104,18.6174282237448
107,18.6164413407549
110,19.276742830735
113,18.7939211788416
116,18.7970281503471
119,18.7929343514506
122,18.7981103256396
125,19.9999999999999
2,1, 1, 1, 0,24, 0.00,60.00,Tuesday
188,11923046.8253235
2,1, 1, 1, 0,24, 0.00,60.00,Tuesday
98,18.5948437849881
101,18.6000975834567
104,18.5988266477124
107,18.5978428938343
110,19.2694762619939
113,18.7890003889992
116,18.7920461688626
119,18.7880367812284
122,18.7931565857305
125,20.
2,2, 1, 2, 0, 1, 0.00,60.00,Wednesday
188,27461163.0920204
2,2, 1, 2, 0, 1, 0.00,60.00,Wednesday
98,18.586685200276
101,18.5918130663824
104,18.590624128546
107,18.5896496352546
110,19.2650446442484
113,18.7881801021372
116,18.79117434082
119,18.7872470859103
122,18.7923205705562
125,19.9999999999999
2,2, 1, 2, 0, 2, 0.00,60.00,Wednesday
188,11710919.4677882
2,2, 1, 2, 0, 2, 0.00,60.00,Wednesday
98,18.5800332286455
101,18.5850439208201
104,18.583917370057
107,18.5829574351993
110,19.2599927119227
113,18.7860270864698
116,18.7889761783798
119,18.7851323424072
122,18.7901670240299
125,20.0000000000001
2,2, 1, 2, 0, 3, 0.00,60.00,Wednesday
188,28205617.8265959
2,2, 1, 2, 0, 3, 0.00,60.00,Wednesday
98,18.5746379848274
101,18.5795437186378
104,18.5784590220736
107,18.5775184069823
110,19.2549062462202
113,18.7835576613034
116,18.7864644719933
119,18.7827071198554
122,18.7877120415233
125,20.0000000000001
2,2, 1, 2, 0, 4, 0.00,60.00,Wednesday
188,28512346.3401709
2,2, 1, 2, 0, 4, 0.00,60.00,Wednesday
98,18.5702342587591
101,18.5750501664904
104,18.5739863350707
107,18.5730690923498
110,19.2498619168134
113,18.7808428026593
116,18.7837071493027
119,18.7800405366548
122,18.7850277159732
125,20.
2,2, 1, 2, 0, 5, 0.00,60.00,Wednesday
188,28949848.4656258
2,2, 1, 2, 0, 5, 0.00,60.00,Wednesday
98,18.5665887496651
101,18.5713330699294
104,18.5702684465529
107,18.5693777841122
110,19.2448821958445
113,18.7778660043179
116,18.780687719908
119,18.7771154373939
122,18.7820978690758
125,19.9999999999999
2,2, 1, 2, 0, 6, 0.00,60.00,Wednesday
188,12267781.1196063
2,2, 1, 2, 0, 6, 0.00,60.00,Wednesday
98,18.5635071619665
101,18.5682014175006
104,18.5671134100986
107,18.5662516644234
110,19.2399729815176
113,18.7746151630833
116,18.7773973539033
119,18.7739198136753
122,18.7789119071894
125,20.
2,2, 1, 2, 0, 7, 0.00,60.00,Wednesday
188,31279483.8630914
2,2, 1, 2, 0, 7, 0.00,60.00,Wednesday
98,18.5658830722827
101,18.5705525505685
104,18.5694170793573
107,18.568586469301
110,19.2372070990659
113,18.774049631089
116,18.7767982877523
119,18.7734129166196
122,18.7784295526588
125,20.0000000000001
2,2, 1, 2, 0, 8, 0.00,60.00,Wednesday
188,29754408.9125109
2,2, 1, 2, 0, 8, 0.00,60.00,Wednesday
98,18.5887456494908
101,18.5934225303713
104,18.5922094430246
107,18.5914162152919
110,19.2422882401841
113,18.7840268162413
116,18.7867482919828
119,18.7834529962136
122,18.7885052780519
125,20.0000000000001
2,2, 1, 2, 0, 9, 0.00,60.00,Wednesday
188,26719041.0246665
2,2, 1, 2, 0, 9, 0.00,60.00,Wednesday
98,18.6361912289313
101,18.6409130666628
104,18.6395914521192
107,18.6388437464798
110,19.2562028573275
113,18.8046824627135
116,18.8073835512217
119,18.8041727749078
122,18.8092703514171
125,20.0000000000001
2,2, 1, 2, 0,10, 0.00,60.00,Wednesday
188,62709903.5680273
2,2, 1, 2, 0,10, 0.00,60.00,Wednesday
98,18.6802769449158
101,18.685077174623
104,18.6836196605794
107,18.6829250707048
110,19.2678169615278
113,18.8189878021048
116,18.8216705394777
119,18.8185245654362
122,18.8236790483194
125,20.
2,2, 1, 2, 0,11, 0.00,60.00,Wednesday
188,57339170.0223804
2,2, 1, 2, 0,11, 0.00,60.00,Wednesday
98,18.7102106714474
101,18.715114745482
104,18.7135043559224
107,18.7128681990725
110,19.2748977276398
113,18.8250485937301
116,18.8276977298925
119,18.824469740414
122,18.8296888484346
125,20.0000000000001
2,2, 1, 2, 0,12, 0.00,60.00,Wednesday
188,28479265.7534652
2,2, 1, 2, 0,12, 0.00,60.00,Wednesday
98,18.7228576965759
101,18.7278831142891
104,18.7261362853947
107,18.7255619358504
110,19.277089348969
113,18.8241229774174
116,18.8267823879938
119,18.8228207187036
122,18.8280926252088
125,20.0000000000001
2,2, 1, 2, 0,13, 0.00,60.00,Wednesday
188,27493300.4480779
2,2, 1, 2, 0,13, 0.00,60.00,Wednesday
98,18.7278937068969
101,18.7330476716935
104,18.7312916927908
107,18.7307678296079
110,19.2784000758345
113,18.8242380834142
116,18.827348371861
119,18.820622954247
122,18.8259052196687
125,20.
2,2, 1, 2, 0,14, 0.00,60.00,Wednesday
188,50889294.6297804
2,2, 1, 2, 0,14, 0.00,60.00,Wednesday
98,18.7473796369782
101,18.7526727184493
104,18.751314497591
107,18.7507654861631
110,19.2866610942189
113,18.8380361153693
116,18.8425224215671
119,18.8294411308027
122,18.8346731852871
125,20.
2,2, 1, 2, 0,15, 0.00,60.00,Wednesday
188,50396056.5942148
2,2, 1, 2, 0,15, 0.00,60.00,Wednesday
98,18.7615022222274
101,18.7669219619096
104,18.7668687755852
107,18.7660365613894
110,19.2924382755302
113,18.8510188374513
116,18.8575131765598
119,18.8348152312022
122,18.8399744183923
125,20.0000000000001
2,2, 1, 2, 0,16, 0.00,60.00,Wednesday
188,50627693.722851
2,2, 1, 2, 0,16, 0.00,60.00,Wednesday
98,18.8018162820247
101,18.8073379063503
104,18.8100793246936
107,18.8084271250766
110,19.3094098878413
113,18.88259738203
116,18.8911594954006
119,18.857363357281
122,18.8628054233885
125,20.0000000000001
2,2, 1, 2, 0,17, 0.00,60.00,Wednesday
188,56723220.2471233
2,2, 1, 2, 0,17, 0.00,60.00,Wednesday
98,18.8301275308749
101,18.8357256261102
104,18.8431907106334
107,18.8398745165009
110,19.3204467058127
113,18.904698012118
116,18.9155305197244
119,18.8706294644842
122,18.8773857063266
125,20.0000000000001
2,2, 1, 2, 0,18, 0.00,60.00,Wednesday
188,67835445.1531378
2,2, 1, 2, 0,18, 0.00,60.00,Wednesday
98,18.8112981810359
101,18.8169933945369
104,18.8312050777116
107,18.8251469252665
110,19.3138798040188
113,18.9007978664984
116,18.9143252632178
119,18.8591066830212
122,18.8683114750465
125,20.0000000000002
2,2, 1, 2, 0,19, 0.00,60.00,Wednesday
188,30354783.2154028
2,2, 1, 2, 0,19, 0.00,60.00,Wednesday
98,18.750415815947
101,18.7563380505092
104,18.7790553418652
107,18.7690794351692
110,19.2938833839019
113,18.8788165742068
116,18.895174543175
119,18.8310508846131
122,18.8432443566766
125,20.0000000000001
2,2, 1, 2, 0,20, 0.00,60.00,Wednesday
188,32702175.7312347
2,2, 1, 2, 0,20, 0.00,60.00,Wednesday
98,18.7107096467369
101,18.7171247955511
104,18.7494604438205
107,18.7345305750339
110,19.2844621433092
113,18.87402515582
116,18.8930038088988
119,18.8216739670466
122,18.8368192481704
125,20.
2,2, 1, 2, 0,21, 0.00,60.00,Wednesday
188,33607619.5595574
2,2, 1, 2, 0,21, 0.00,60.00,Wednesday
98,18.685537730138
101,18.6927955107347
104,18.7353056280932
107,18.7145860022809
110,19.278649935255
113,18.8732156831455
116,18.8944496426333
119,18.8175257068833
122,18.8353084504492
125,20.
2,2, 1, 2, 0,22, 0.00,60.00,Wednesday
188,34349302.1319768
2,2, 1, 2, 0,22, 0.00,60.00,Wednesday
98,18.6744870142413
101,18.6829156493043
104,18.7353260158698
107,18.7084503815991
110,19.2762327700577
113,18.8755089695933
116,18.8985818460335
119,18.8175104687525
122,18.8375054466478
125,20.0000000000001
2,2, 1, 2, 0,23, 0.00,60.00,Wednesday
188,37308241.7415033
2,2, 1, 2, 0,23, 0.00,60.00,Wednesday
98,18.649158165344
101,18.6590945408271
104,18.7212584492834
107,18.6878179253652
110,19.2663619902463
113,18.8650873379979
116,18.8896546978125
119,18.8055478510423
122,18.8273952500639
125,20.
2,2, 1, 2, 0,24, 0.00,60.00,Wednesday
188,36846505.9315403
2,2, 1, 2, 0,24, 0.00,60.00,Wednesday
98,18.6321811806504
101,18.6438267813815
104,18.7148596331701
107,18.674997725702
110,19.2598864404714
113,18.8590186508226
116,18.8847479299509
119,18.7985824699195
122,18.8219162953688
125,20.
2,3, 1, 3, 0, 1, 0.00,60.00,Thursday
188,12819606.9347679
2,3, 1, 3, 0, 1, 0.00,60.00,Thursday
98,18.6249649972666
101,18.6383857279769
104,18.7170457056624
107,18.671272439923
110,19.2561961163166
113,18.8556600501669
116,18.8822735260112
119,18.7948313992529
122,18.8193299784125
125,20.
2,3, 1, 3, 0, 2, 0.00,60.00,Thursday
188,37278198.2530249
2,3, 1, 3, 0, 2, 0.00,60.00,Thursday
98,18.61853784271
101,18.6337737038266
104,18.719036251147
107,18.6677988458207
110,19.2518446422308
113,18.8497659660033
116,18.8770396471652
119,18.7889425382285
122,18.8143454210422
125,20.
2,3, 1, 3, 0, 3, 0.00,60.00,Thursday
188,37463894.8472758
2,3, 1, 3, 0, 3, 0.00,60.00,Thursday
98,18.6125234147823
101,18.629534854712
104,18.7203170066015
107,18.6641939497823
110,19.2474039241946
113,18.8425760757264
116,18.8703004104521
119,18.7820801673173
122,18.8081564021466
125,19.9999999999999
2,3, 1, 3, 0, 4, 0.00,60.00,Thursday
188,12728389.9071998
2,3, 1, 3, 0, 4, 0.00,60.00,Thursday
98,18.6065817062653
101,18.6252707923928
104,18.7205055247434
107,18.6601404973939
110,19.2429430948286
113,18.8343652938499
116,18.862348688058
119,18.7744512617524
122,18.8010020742856
125,20.0000000000001
2,3, 1, 3, 0, 5, 0.00,60.00,Thursday
188,35655918.6576435
2,3, 1, 3, 0, 5, 0.00,60.00,Thursday
98,18.6004515427226
101,18.6206805426838
104,18.7193593129927
107,18.6554156894623
110,19.238479381693
113,18.8252997419442
116,18.8533742144168
119,18.7661635876284
122,18.7930209903105
125,20.
2,3, 1, 3, 0, 6, 0.00,60.00,Thursday
188,35040436.8379908
2,3, 1, 3, 0, 6, 0.00,60.00,Thursday
98,18.593953121148
101,18.6155601898946
104,18.7167564142039
107,18.649886052998
110,19.2340155040245
113,18.8155572945398
116,18.8435808023341
119,18.7573450439821
122,18.7843664565964
125,19.9999999999999
2,3, 1, 3, 0, 7, 0.00,60.00,Thursday
188,12138517.4629357
2,3, 1, 3, 0, 7, 0.00,60.00,Thursday
98,18.59203572415
101,18.6148501139936
104,18.7177407419924
107,18.6485568027503
110,19.2316233247553
113,18.8083042284005
116,18.8361582765775
119,18.7511194475471
122,18.7781789975388
125,20.
2,3, 1, 3, 0, 8, 0.00,60.00,Thursday
188,9669923.04045019
2,3, 1, 3, 0, 8, 0.00,60.00,Thursday
98,18.6096244562317
101,18.6335126645753
104,18.7374377968039
107,18.6664366780888
110,19.2369820448477
113,18.8115270557546
116,18.8391182693653
119,18.7554458822127
122,18.7824366203413
125,20.
2,3, 1, 3, 0, 9, 0.00,60.00,Thursday
188,6003223.39599956
2,3, 1, 3, 0, 9, 0.00,60.00,Thursday
98,18.6511933074445
101,18.6760006432292
104,18.7803953988421
107,18.7080623494359
110,19.2511187356266
113,18.8257735177614
116,18.8530381690429
119,18.7708228553592
122,18.7976615958753
125,20.
2,3, 1, 3, 0,10, 0.00,60.00,Thursday
188,64624034.8895997
2,3, 1, 3, 0,10, 0.00,60.00,Thursday
98,18.6889092698844
101,18.7144923613381
104,18.818877891831
107,18.7456388333463
110,19.2628980229748
113,18.8341472465598
116,18.8610321942765
119,18.7803334146946
122,18.8069544204152
125,20.
2,3, 1, 3, 0,11, 0.00,60.00,Thursday
188,58513278.8273468
2,3, 1, 3, 0,11, 0.00,60.00,Thursday
98,18.712128970452
101,18.7383431392584
104,18.8422809045557
107,18.7685367936991
110,19.2700932294507
113,18.8349654183826
116,18.8614129392242
119,18.7820596255048
122,18.8084046538486
125,20.0000000000001
2,3, 1, 3, 0,12, 0.00,60.00,Thursday
188,30718063.2798865
2,3, 1, 3, 0,12, 0.00,60.00,Thursday
98,18.7177605264222
101,18.7444463496392
104,18.8475927349317
107,18.7737259689573
110,19.2723490820529
113,18.8303277158255
116,18.8563931916312
119,18.7769959071065
122,18.8029960975493
125,20.
2,3, 1, 3, 0,13, 0.00,60.00,Thursday
188,30491454.609674
2,3, 1, 3, 0,13, 0.00,60.00,Thursday
98,18.7162780520225
101,18.7433024750225
104,18.8455477531913
107,18.7718712762923
110,19.2737442882674
113,18.8286377992171
116,18.8547548700776
119,18.7722125006532
122,18.797770689322
125,20.
2,3, 1, 3, 0,14, 0.00,60.00,Thursday
188,56189363.7895894
2,3, 1, 3, 0,14, 0.00,60.00,Thursday
98,18.7291555861448
101,18.7564023028165
104,18.8581750134197
107,18.7848738060616
110,19.2820327017959
113,18.8412034922558
116,18.8680206972844
119,18.7791899793961
122,18.8041975523229
125,19.9999999999999
2,3, 1, 3, 0,15, 0.00,60.00,Thursday
188,1709020.12113035
2,3, 1, 3, 0,15, 0.00,60.00,Thursday
98,18.7367084375808
101,18.76403977245
104,18.8664249896859
107,18.7935050348158
110,19.2877283046089
113,18.8516643396979
116,18.8795182142673
119,18.7832838726415
122,18.8076515441792
125,20.
2,3, 1, 3, 0,16, 0.00,60.00,Thursday
188,0.0
2,3, 1, 3, 0,16, 0.00,60.00,Thursday
98,18.7713413943338
101,18.7986352199271
104,18.9032935662606
107,18.8305867056023
110,19.3047020811488
113,18.8794350336096
116,18.908348996384
119,18.8050401765891
122,18.8286917227469
125,20.0796536110892
2,3, 1, 3, 0,17, 0.00,60.00,Thursday
188,53505195.4228064
2,3, 1, 3, 0,17, 0.00,60.00,Thursday
98,18.8039213519735
101,18.8309768961774
104,18.939416296577
107,18.8668260621379
110,19.3176450056052
113,18.902621328168
116,18.9323712230096
119,18.8234501646357
122,18.8463346076819
125,20.0063551307277
2,3, 1, 3, 0,18, 0.00,60.00,Thursday
188,58059827.5363515
2,3, 1, 3, 0,18, 0.00,60.00,Thursday
98,18.7774668054333
101,18.8041861647914
104,18.9181941733295
107,18.8452727164217
110,19.3101673555323
113,18.8899765985114
116,18.9204215159502
119,18.8071112467226
122,18.8292871018384
125,20.0005730416282
2,3, 1, 3, 0,19, 0.00,60.00,Thursday
188,26334334.328283
2,3, 1, 3, 0,19, 0.00,60.00,Thursday
98,18.7098489553117
101,18.7360188812943
104,18.8564733831722
107,18.7831404119918
110,19.2896966447879
113,18.8615561595687
116,18.892450362116
119,18.7762186898343
122,18.7977164287391
125,20.0000276882899
2,3, 1, 3, 0,20, 0.00,60.00,Thursday
188,27459893.4132261
2,3, 1, 3, 0,20, 0.00,60.00,Thursday
98,18.664569396639
101,18.6900426368519
104,18.8173083652908
107,18.7435025373643
110,19.2799413720042
113,18.85173251255
116,18.8828920919273
119,18.7648913391796
122,18.7857729559495
125,20.0000013857546
2,3, 1, 3, 0,21, 0.00,60.00,Thursday
188,27468245.7060521
2,3, 1, 3, 0,21, 0.00,60.00,Thursday
98,18.6345487460377
101,18.6592340692704
104,18.7933211160161
107,18.7190039112767
110,19.2738289332856
113,18.8471478333023
116,18.8784178010326
119,18.7595481694047
122,18.7798746009613
125,20.0000000692172
2,3, 1, 3, 0,22, 0.00,60.00,Thursday
188,26887819.8061364
2,3, 1, 3, 0,22, 0.00,60.00,Thursday
98,18.6188856644988
101,18.6427409824844
104,18.783302486208
107,18.7084877239331
110,19.2710945480638
113,18.8469124875403
116,18.8781445554228
119,18.7591263299501
122,18.7789496027258
125,20.0000000033835
2,3, 1, 3, 0,23, 0.00,60.00,Thursday
188,28654709.9477254
2,3, 1, 3, 0,23, 0.00,60.00,Thursday
98,18.5899474204085
101,18.612952923024
104,18.7593048876646
107,18.684097413177
110,19.2609507862132
113,18.8351634029157
116,18.8662216089918
119,18.747643057446
122,18.7670031640298
125,20.0000000001757
2,3, 1, 3, 0,24, 0.00,60.00,Thursday
188,29029012.0227052
2,3, 1, 3, 0,24, 0.00,60.00,Thursday
98,18.5699258517573
101,18.5920916653833
104,18.7433707714645
107,18.6679206779594
110,19.2542037761456
113,18.8289234455539
116,18.8597068214319
119,18.7420097410388
122,18.760941180777
125,20.0000000000092
2,4, 1, 4, 0, 1, 0.00,60.00,Friday
188,28744177.5062477
2,4, 1, 4, 0, 1, 0.00,60.00,Friday
98,18.5604165539715
101,18.581800533714
104,18.7369856495831
107,18.6614606091909
110,19.2502680044633
113,18.826476192362
116,18.8569154428925
119,18.7404247621535
122,18.7589601641843
125,20.0000000000005
2,4, 1, 4, 0, 2, 0.00,60.00,Friday
188,28530029.6277367
2,4, 1, 4, 0, 2, 0.00,60.00,Friday
98,18.552417643365
101,18.5730608828605
104,18.7312709501721
107,18.6558488092139
110,19.2456877301222
113,18.822453006024
116,18.8524860100706
119,18.7374893746897
122,18.755651174726
125,20.
2,4, 1, 4, 0, 3, 0.00,60.00,Friday
188,28315586.9897622
2,4, 1, 4, 0, 3, 0.00,60.00,Friday
98,18.5456647122736
101,18.5656190372477
104,18.7259648428444
107,18.6508334672785
110,19.2410475791345
113,18.8179734115345
116,18.847550435738
119,18.7342810098964
122,18.7520917080242
125,20.
2,4, 1, 4, 0, 4, 0.00,60.00,Friday
188,11713206.0718526
2,4, 1, 4, 0, 4, 0.00,60.00,Friday
98,18.5398905006686
101,18.5592126905629
104,18.7208464350595
107,18.6461910786554
110,19.2364247107626
113,18.8132166222057
116,18.842298166199
119,18.7309372403498
122,18.7484156874869
125,20.0000000000001
2,4, 1, 4, 0, 5, 0.00,60.00,Friday
188,28017952.8236767
2,4, 1, 4, 0, 5, 0.00,60.00,Friday
98,18.5348716084661
101,18.553619547134
104,18.7157616539646
107,18.6417569078271
110,19.2318429750722
113,18.8082585898185
116,18.8368156871569
119,18.7274985898451
122,18.7446610351713
125,20.
2,4, 1, 4, 0, 6, 0.00,60.00,Friday
188,28456630.3700676
2,4, 1, 4, 0, 6, 0.00,60.00,Friday
98,18.530434584837
101,18.5486648614909
104,18.7106169370913
107,18.6374218394293
110,19.2273102157184
113,18.8031607859577
116,18.8311758850024
119,18.7239995461557
122,18.7408632550383
125,20.0000000000001
2,4, 1, 4, 0, 7, 0.00,60.00,Friday
188,27835463.7988444
2,4, 1, 4, 0, 7, 0.00,60.00,Friday
98,18.5315002819636
101,18.5492690763805
104,18.7104337564
107,18.6381821745488
110,19.2249016452073
113,18.8009546276012
116,18.8284222062962
119,18.7234438737065
122,18.7400291201016
125,20.
2,4, 1, 4, 0, 8, 0.00,60.00,Friday
188,8793857.54375233
2,4, 1, 4, 0, 8, 0.00,60.00,Friday
98,18.5530773420291
101,18.570437166613
104,18.7303303016355
107,18.6591373130475
110,19.2303198390661
113,18.8095595172124
116,18.8364810636479
119,18.7337367648126
122,18.7500631079473
125,20.
2,4, 1, 4, 0, 9, 0.00,60.00,Friday
188,21014688.5925617
2,4, 1, 4, 0, 9, 0.00,60.00,Friday
98,18.5993591227477
101,18.6163845536092
104,18.7747061426651
107,18.7046030489561
110,19.2445619092075
113,18.829248755205
116,18.8556401989002
119,18.755102520653
122,18.7711900460288
125,20.0000000000001
2,4, 1, 4, 0,10, 0.00,60.00,Friday
188,50201022.0522501
2,4, 1, 4, 0,10, 0.00,60.00,Friday
98,18.6424538229376
101,18.6592070121337
104,18.8156935394267
107,18.7467135611005
110,19.2564979592714
113,18.8430460426805
116,18.8689059002876
119,18.7705654641646
122,18.7864214550575
125,20.0000000000002
2,4, 1, 4, 0,11, 0.00,60.00,Friday
188,47857955.6650995
2,4, 1, 4, 0,11, 0.00,60.00,Friday
98,18.6716448013437
101,18.6881697275337
104,18.8425393378225
107,18.7747383747654
110,19.2638997315401
113,18.8490370208106
116,18.8743308649744
119,18.7781255586483
122,18.7937442759078
125,19.9999999999999
2,4, 1, 4, 0,12, 0.00,60.00,Friday
188,3205076.29736727
2,4, 1, 4, 0,12, 0.00,60.00,Friday
98,18.6834931801733
101,18.6998213090135
104,18.8518472344388
107,18.7852701264957
110,19.266370938585
113,18.848045412244
116,18.8727271573396
119,18.7785115868405
122,18.7938717464118
125,20.
2,4, 1, 4, 0,13, 0.00,60.00,Friday
188,3618533.38956156
2,4, 1, 4, 0,13, 0.00,60.00,Friday
98,18.6886033343956
101,18.7047500572874
104,18.8541905966116
107,18.7889233742058
110,19.2680080015751
113,18.847078780323
116,18.8711208107223
119,18.7787712988662
122,18.7938206567067
125,20.
2,4, 1, 4, 0,14, 0.00,60.00,Friday
188,908277.590226549
2,4, 1, 4, 0,14, 0.00,60.00,Friday
98,18.708431736485
101,18.7244062498553
104,18.8711109692368
107,18.8072309318354
110,19.2765532280395
113,18.8576159130755
116,18.8810344527561
119,18.790409095105
122,18.8050707461559
125,20.
2,4, 1, 4, 0,15, 0.00,60.00,Friday
188,42515263.8518406
2,4, 1, 4, 0,15, 0.00,60.00,Friday
98,18.7231759918994
101,18.7389735960442
104,18.8829759361786
107,18.8204921573877
110,19.282572791941
113,18.8651504774646
116,18.8879941537854
119,18.7989406763109
122,18.8131299717446
125,20.
2,4, 1, 4, 0,16, 0.00,60.00,Friday
188,40536960.5046954
2,4, 1, 4, 0,16, 0.00,60.00,Friday
98,18.7643594167018
101,18.779960281628
104,18.9214378365142
107,18.8603029211429
110,19.2997467812516
113,18.8901330558739
116,18.9124581829343
119,18.8248584293053
122,18.8385177879735
125,20.0000000000001