Program Version,EnergyPlus, Version 8.2.0-e53a815bb2, YMD=2015.08.14 15:55
1,5,Environment Title[],Latitude[deg],Longitude[deg],Time Zone[],Elevation[m]
2,6,Day of Simulation[],Month[],Day of Month[],DST Indicator[1=yes 0=no],Hour[],StartMinute[],EndMinute[],DayType
3,3,Cumulative Day of Simulation[],Month[],Day of Month[],DST Indicator[1=yes 0=no],DayType  ! When Daily Report Variables Requested
4,2,Cumulative Days of Simulation[],Month[]  ! When Monthly Report Variables Requested
5,1,Cumulative Days of Simulation[] ! When Run Period Report Variables Requested
6,1,ZONE11466,Zone Mean Air Temperature [C] !Hourly
End of Data Dictionary
1,Zuerich-Kloten - - MN7 WMO#=999,  47.48,   8.54,   1.00, 436.00
2,1, 1, 1, 0, 1, 0.00,60.00,Tuesday
6,20.0000000000001
2,1, 1, 1, 0, 2, 0.00,60.00,Tuesday
6,20.0000000000001
2,1, 1, 1, 0, 3, 0.00,60.00,Tuesday
6,20.0000000000001
2,1, 1, 1, 0, 4, 0.00,60.00,Tuesday
6,20.
2,1, 1, 1, 0, 5, 0.00,60.00,Tuesday
6,19.9999999999999
2,1, 1, 1, 0, 6, 0.00,60.00,Tuesday
6,20.
2,1, 1, 1, 0, 7, 0.00,60.00,Tuesday
6,19.9999999999998
2,1, 1, 1, 0, 8, 0.00,60.00,Tuesday
6,19.9999999999999
2,1, 1, 1, 0, 9, 0.00,60.00,Tuesday
6,20.
2,1, 1, 1, 0,10, 0.00,60.00,Tuesday
6,19.9999999999999
2,1, 1, 1, 0,11, 0.00,60.00,Tuesday
6,20.
2,1, 1, 1, 0,12, 0.00,60.00,Tuesday
6,20.
2,1, 1, 1, 0,13, 0.00,60.00,Tuesday
6,20.
2,1, 1, 1, 0,14, 0.00,60.00,Tuesday
6,20.
2,1, 1, 1, 0,15, 0.00,60.00,Tuesday
6,20.
2,1, 1, 1, 0,16, 0.00,60.00,Tuesday
6,20.
2,1, 1, 1, 0,17, 0.00,60.00,Tuesday
6,19.9999999999999
2,1, 1, 1, 0,18, 0.00,60.00,Tuesday
6,20.
2,1, 1, 1, 0,19, 0.00,60.00,Tuesday
6,20.
2,1, 1, 1, 0,20, 0.00,60.00,Tuesday
6,19.9999999999999
2,1, 1, 1, 0,21, 0.00,60.00,Tuesday
6,20.
2,1, 1, 1, 0,22, 0.00,60.00,Tuesday
6,20.0000000000001
2,1, 1, 1, 0,23, 0.00,60.00,Tuesday
6,19.9999999999999
2,1, 1, 1, 0,24, 0.00,60.00,Tuesday
6,20.
2,2, 1, 2, 0, 1, 0.00,60.00,Wednesday
6,20.0000000000001
2,2, 1, 2, 0, 2, 0.00,60.00,Wednesday
6,19.9999999999998
2,2, 1, 2, 0, 3, 0.00,60.00,Wednesday
6,20.0000000000001
2,2, 1, 2, 0, 4, 0.00,60.00,Wednesday
6,20.
2,2, 1, 2, 0, 5, 0.00,60.00,Wednesday
6,20.
2,2, 1, 2, 0, 6, 0.00,60.00,Wednesday
6,20.
2,2, 1, 2, 0, 7, 0.00,60.00,Wednesday
6,20.0000000000001
2,2, 1, 2, 0, 8, 0.00,60.00,Wednesday
6,20.0000000000001
2,2, 1, 2, 0, 9, 0.00,60.00,Wednesday
6,20.0000000000001
2,2, 1, 2, 0,10, 0.00,60.00,Wednesday
6,20.
2,2, 1, 2, 0,11, 0.00,60.00,Wednesday
6,20.
2,2, 1, 2, 0,12, 0.00,60.00,Wednesday
6,20.
2,2, 1, 2, 0,13, 0.00,60.00,Wednesday
6,20.
2,2, 1, 2, 0,14, 0.00,60.00,Wednesday
6,20.
2,2, 1, 2, 0,15, 0.00,60.00,Wednesday
6,19.9999999999999
2,2, 1, 2, 0,16, 0.00,60.00,Wednesday
6,20.
2,2, 1, 2, 0,17, 0.00,60.00,Wednesday
6,19.9999999999999
2,2, 1, 2, 0,18, 0.00,60.00,Wednesday
6,20.0000000000001
2,2, 1, 2, 0,19, 0.00,60.00,Wednesday
6,19.9999999999999
2,2, 1, 2, 0,20, 0.00,60.00,Wednesday
6,20.
2,2, 1, 2, 0,21, 0.00,60.00,Wednesday
6,19.9999999999999
2,2, 1, 2, 0,22, 0.00,60.00,Wednesday
6,20.0000000000001
2,2, 1, 2, 0,23, 0.00,60.00,Wednesday
6,20.
2,2, 1, 2, 0,24, 0.00,60.00,Wednesday
6,20.
2,3, 1, 3, 0, 1, 0.00,60.00,Thursday
6,20.
2,3, 1, 3, 0, 2, 0.00,60.00,Thursday
6,20.
2,3, 1, 3, 0, 3, 0.00,60.00,Thursday
6,20.
2,3, 1, 3, 0, 4, 0.00,60.00,Thursday
6,19.9999999999999
2,3, 1, 3, 0, 5, 0.00,60.00,Thursday
6,20.0000000000001
2,3, 1, 3, 0, 6, 0.00,60.00,Thursday
6,20.0000000000001
2,3, 1, 3, 0, 7, 0.00,60.00,Thursday
6,20.
2,3, 1, 3, 0, 8, 0.00,60.00,Thursday
6,20.
2,3, 1, 3, 0, 9, 0.00,60.00,Thursday
6,20.
2,3, 1, 3, 0,10, 0.00,60.00,Thursday
6,20.
2,3, 1, 3, 0,11, 0.00,60.00,Thursday
6,20.
2,3, 1, 3, 0,12, 0.00,60.00,Thursday
6,20.
2,3, 1, 3, 0,13, 0.00,60.00,Thursday
6,19.9999999999999
2,3, 1, 3, 0,14, 0.00,60.00,Thursday
6,20.0000000000001
2,3, 1, 3, 0,15, 0.00,60.00,Thursday
6,19.9999999999999
2,3, 1, 3, 0,16, 0.00,60.00,Thursday
6,20.
2,3, 1, 3, 0,17, 0.00,60.00,Thursday
6,20.
2,3, 1, 3, 0,18, 0.00,60.00,Thursday
6,20.
2,3, 1, 3, 0,19, 0.00,60.00,Thursday
6,20.0000000000001
2,3, 1, 3, 0,20, 0.00,60.00,Thursday
6,20.
2,3, 1, 3, 0,21, 0.00,60.00,Thursday
6,20.
2,3, 1, 3, 0,22, 0.00,60.00,Thursday
6,20.
2,3, 1, 3, 0,23, 0.00,60.00,Thursday
6,20.0000000000001
2,3, 1, 3, 0,24, 0.00,60.00,Thursday
6,20.
2,4, 1, 4, 0, 1, 0.00,60.00,Friday
6,20.
2,4, 1, 4, 0, 2, 0.00,60.00,Friday
6,20.
2,4, 1, 4, 0, 3, 0.00,60.00,Friday
6,20.
2,4, 1, 4, 0, 4, 0.00,60.00,Friday
6,19.9999999999999
2,4, 1, 4, 0, 5, 0.00,60.00,Friday
6,20.0000000000001
2,4, 1, 4, 0, 6, 0.00,60.00,Friday
6,20.0000000000001
2,4, 1, 4, 0, 7, 0.00,60.00,Friday
6,20.
2,4, 1, 4, 0, 8, 0.00,60.00,Friday
6,20.
2,4, 1, 4, 0, 9, 0.00,60.00,Friday
6,20.
2,4, 1, 4, 0,10, 0.00,60.00,Friday
6,20.
2,4, 1, 4, 0,11, 0.00,60.00,Friday
6,20.0000000000001
2,4, 1, 4, 0,12, 0.00,60.00,Friday
6,20.0000000000001
2,4, 1, 4, 0,13, 0.00,60.00,Friday
6,20.
2,4, 1, 4, 0,14, 0.00,60.00,Friday
6,20.
2,4, 1, 4, 0,15, 0.00,60.00,Friday
6,20.
2,4, 1, 4, 0,16, 0.00,60.00,Friday
6,20.
2,4, 1, 4, 0,17, 0.00,60.00,Friday
6,19.9999999999999
2,4, 1, 4, 0,18, 0.00,60.00,Friday
6,19.9999999999999
2,4, 1, 4, 0,19, 0.00,60.00,Friday
6,20.
2,4, 1, 4, 0,20, 0.00,60.00,Friday
6,20.
2,4, 1, 4, 0,21, 0.00,60.00,Friday
6,20.
2,4, 1, 4, 0,22, 0.00,60.00,Friday
6,19.9999999999999
2,4, 1, 4, 0,23, 0.00,60.00,Friday
6,20.
2,4, 1, 4, 0,24, 0.00,60.00,Friday
6,20.
2,5, 1, 5, 0, 1, 0.00,60.00,Saturday
6,20.
2,5, 1, 5, 0, 2, 0.00,60.00,Saturday
6,19.9999999999998
2,5, 1, 5, 0, 3, 0.00,60.00,Saturday
6,20.
2,5, 1, 5, 0, 4, 0.00,60.00,Saturday
6,19.9999999999999
2,5, 1, 5, 0, 5, 0.00,60.00,Saturday
6,20.0000000000001
2,5, 1, 5, 0, 6, 0.00,60.00,Saturday
6,19.9999999999999
2,5, 1, 5, 0, 7, 0.00,60.00,Saturday
6,19.9999999999999
2,5, 1, 5, 0, 8, 0.00,60.00,Saturday
6,20.
2,5, 1, 5, 0, 9, 0.00,60.00,Saturday
6,19.9999999999998
2,5, 1, 5, 0,10, 0.00,60.00,Saturday
6,20.
2,5, 1, 5, 0,11, 0.00,60.00,Saturday
6,20.
2,5, 1, 5, 0,12, 0.00,60.00,Saturday
6,19.9999999999999
2,5, 1, 5, 0,13, 0.00,60.00,Saturday
6,20.0000000000001
2,5, 1, 5, 0,14, 0.00,60.00,Saturday
6,20.0000000000001
2,5, 1, 5, 0,15, 0.00,60.00,Saturday
6,20.0000000000001
2,5, 1, 5, 0,16, 0.00,60.00,Saturday
6,20.
2,5, 1, 5, 0,17, 0.00,60.00,Saturday
6,20.0000000000001
2,5, 1, 5, 0,18, 0.00,60.00,Saturday
6,19.9999999999999
2,5, 1, 5, 0,19, 0.00,60.00,Saturday
6,20.
2,5, 1, 5, 0,20, 0.00,60.00,Saturday
6,20.
2,5, 1, 5, 0,21, 0.00,60.00,Saturday
6,20.
2,5, 1, 5, 0,22, 0.00,60.00,Saturday
6,20.
2,5, 1, 5, 0,23, 0.00,60.00,Saturday
6,19.9999999999999
2,5, 1, 5, 0,24, 0.00,60.00,Saturday
6,20.
2,6, 1, 6, 0, 1, 0.00,60.00,Sunday
6,19.9999999999998
2,6, 1, 6, 0, 2, 0.00,60.00,Sunday
6,20.
2,6, 1, 6, 0, 3, 0.00,60.00,Sunday
6,19.9999999999999
2,6, 1, 6, 0, 4, 0.00,60.00,Sunday
6,20.
2,6, 1, 6, 0, 5, 0.00,60.00,Sunday
6,19.9999999999999
2,6, 1, 6, 0, 6, 0.00,60.00,Sunday
6,20.
2,6, 1, 6, 0, 7, 0.00,60.00,Sunday
6,20.
2,6, 1, 6, 0, 8, 0.00,60.00,Sunday
6,19.9999999999998
2,6, 1, 6, 0, 9, 0.00,60.00,Sunday
6,19.9999999999999
2,6, 1, 6, 0,10, 0.00,60.00,Sunday
6,20.
2,6, 1, 6, 0,11, 0.00,60.00,Sunday
6,20.
2,6, 1, 6, 0,12, 0.00,60.00,Sunday
6,20.
2,6, 1, 6, 0,13, 0.00,60.00,Sunday
6,20.0000000000001
2,6, 1, 6, 0,14, 0.00,60.00,Sunday
6,20.0000000000001
2,6, 1, 6, 0,15, 0.00,60.00,Sunday
6,20.
2,6, 1, 6, 0,16, 0.00,60.00,Sunday
6,20.
2,6, 1, 6, 0,17, 0.00,60.00,Sunday
6,20.
2,6, 1, 6, 0,18, 0.00,60.00,Sunday
6,19.9999999999999
2,6, 1, 6, 0,19, 0.00,60.00,Sunday
6,20.
2,6, 1, 6, 0,20, 0.00,60.00,Sunday
6,19.9999999999999
2,6, 1, 6, 0,21, 0.00,60.00,Sunday
6,20.
2,6, 1, 6, 0,22, 0.00,60.00,Sunday
6,20.
2,6, 1, 6, 0,23, 0.00,60.00,Sunday
6,20.
2,6, 1, 6, 0,24, 0.00,60.00,Sunday
6,20.
2,7, 1, 7, 0, 1, 0.00,60.00,Monday
6,20.
2,7, 1, 7, 0, 2, 0.00,60.00,Monday
6,20.
2,7, 1, 7, 0, 3, 0.00,60.00,Monday
6,20.
2,7, 1, 7, 0, 4, 0.00,60.00,Monday
6,19.9999999999999
2,7, 1, 7, 0, 5, 0.00,60.00,Monday
6,19.9999999999999
2,7, 1, 7, 0, 6, 0.00,60.00,Monday
6,20.
2,7, 1, 7, 0, 7, 0.00,60.00,Monday
6,19.9999999999999
2,7, 1, 7, 0, 8, 0.00,60.00,Monday
6,20.
2,7, 1, 7, 0, 9, 0.00,60.00,Monday
6,20.
2,7, 1, 7, 0,10, 0.00,60.00,Monday
6,20.
2,7, 1, 7, 0,11, 0.00,60.00,Monday
6,19.9999999999999
2,7, 1, 7, 0,12, 0.00,60.00,Monday
6,20.
2,7, 1, 7, 0,13, 0.00,60.00,Monday
6,20.
2,7, 1, 7, 0,14, 0.00,60.00,Monday
6,20.
2,7, 1, 7, 0,15, 0.00,60.00,Monday
6,20.
2,7, 1, 7, 0,16, 0.00,60.00,Monday
6,20.
2,7, 1, 7, 0,17, 0.00,60.00,Monday
6,19.9999999999999
2,7, 1, 7, 0,18, 0.00,60.00,Monday
6,20.
2,7, 1, 7, 0,19, 0.00,60.00,Monday
6,20.
2,7, 1, 7, 0,20, 0.00,60.00,Monday
6,20.0000000000001
2,7, 1, 7, 0,21, 0.00,60.00,Monday
6,20.
2,7, 1, 7, 0,22, 0.00,60.00,Monday
6,20.
2,7, 1, 7, 0,23, 0.00,60.00,Monday
6,19.9999999999999
2,7, 1, 7, 0,24, 0.00,60.00,Monday
6,19.9999999999999
2,8, 1, 8, 0, 1, 0.00,60.00,Tuesday
6,20.
2,8, 1, 8, 0, 2, 0.00,60.00,Tuesday
6,20.
2,8, 1, 8, 0, 3, 0.00,60.00,Tuesday
6,20.0000000000001
2,8, 1, 8, 0, 4, 0.00,60.00,Tuesday
6,19.9999999999999
2,8, 1, 8, 0, 5, 0.00,60.00,Tuesday
6,20.0000000000001
2,8, 1, 8, 0, 6, 0.00,60.00,Tuesday
6,20.
2,8, 1, 8, 0, 7, 0.00,60.00,Tuesday
6,19.9999999999999
2,8, 1, 8, 0, 8, 0.00,60.00,Tuesday
6,20.
2,8, 1, 8, 0, 9, 0.00,60.00,Tuesday
6,20.
2,8, 1, 8, 0,10, 0.00,60.00,Tuesday
6,20.0000000000001
2,8, 1, 8, 0,11, 0.00,60.00,Tuesday
6,20.
2,8, 1, 8, 0,12, 0.00,60.00,Tuesday
6,19.9999999999999
2,8, 1, 8, 0,13, 0.00,60.00,Tuesday
6,20.
2,8, 1, 8, 0,14, 0.00,60.00,Tuesday
6,20.
2,8, 1, 8, 0,15, 0.00,60.00,Tuesday
6,19.9999999999999
2,8, 1, 8, 0,16, 0.00,60.00,Tuesday
6,20.0000000000001
2,8, 1, 8, 0,17, 0.00,60.00,Tuesday
6,20.
2,8, 1, 8, 0,18, 0.00,60.00,Tuesday
6,20.
2,8, 1, 8, 0,19, 0.00,60.00,Tuesday
6,20.
2,8, 1, 8, 0,20, 0.00,60.00,Tuesday
6,20.
2,8, 1, 8, 0,21, 0.00,60.00,Tuesday
6,20.
2,8, 1, 8, 0,22, 0.00,60.00,Tuesday
6,20.0000000000001
2,8, 1, 8, 0,23, 0.00,60.00,Tuesday
6,20.
2,8, 1, 8, 0,24, 0.00,60.00,Tuesday
6,20.0000000000001
2,9, 1, 9, 0, 1, 0.00,60.00,Wednesday
6,20.0000000000001
2,9, 1, 9, 0, 2, 0.00,60.00,Wednesday
6,20.
2,9, 1, 9, 0, 3, 0.00,60.00,Wednesday
6,20.
2,9, 1, 9, 0, 4, 0.00,60.00,Wednesday
6,20.
2,9, 1, 9, 0, 5, 0.00,60.00,Wednesday
6,20.
2,9, 1, 9, 0, 6, 0.00,60.00,Wednesday
6,20.
2,9, 1, 9, 0, 7, 0.00,60.00,Wednesday
6,20.
2,9, 1, 9, 0, 8, 0.00,60.00,Wednesday
6,20.
2,9, 1, 9, 0, 9, 0.00,60.00,Wednesday
6,20.
2,9, 1, 9, 0,10, 0.00,60.00,Wednesday
6,20.
2,9, 1, 9, 0,11, 0.00,60.00,Wednesday
6,20.
2,9, 1, 9, 0,12, 0.00,60.00,Wednesday
6,20.
2,9, 1, 9, 0,13, 0.00,60.00,Wednesday
6,19.9999999999999
2,9, 1, 9, 0,14, 0.00,60.00,Wednesday
6,20.
2,9, 1, 9, 0,15, 0.00,60.00,Wednesday
6,19.9999999999999
2,9, 1, 9, 0,16, 0.00,60.00,Wednesday
6,20.
2,9, 1, 9, 0,17, 0.00,60.00,Wednesday
6,20.
2,9, 1, 9, 0,18, 0.00,60.00,Wednesday
6,20.
2,9, 1, 9, 0,19, 0.00,60.00,Wednesday
6,20.
2,9, 1, 9, 0,20, 0.00,60.00,Wednesday
6,20.0000000000001
2,9, 1, 9, 0,21, 0.00,60.00,Wednesday
6,20.0000000000001
2,9, 1, 9, 0,22, 0.00,60.00,Wednesday
6,20.0000000000001
2,9, 1, 9, 0,23, 0.00,60.00,Wednesday
6,20.0000000000001
2,9, 1, 9, 0,24, 0.00,60.00,Wednesday
6,20.
2,10, 1,10, 0, 1, 0.00,60.00,Thursday
6,20.0000000000002
2,10, 1,10, 0, 2, 0.00,60.00,Thursday
6,20.0000000000001
2,10, 1,10, 0, 3, 0.00,60.00,Thursday
6,20.0000000000001
2,10, 1,10, 0, 4, 0.00,60.00,Thursday
6,20.0000000000001
2,10, 1,10, 0, 5, 0.00,60.00,Thursday
6,20.0000000000001
2,10, 1,10, 0, 6, 0.00,60.00,Thursday
6,20.
2,10, 1,10, 0, 7, 0.00,60.00,Thursday
6,20.0000000000001
2,10, 1,10, 0, 8, 0.00,60.00,Thursday
6,20.0000000000001
2,10, 1,10, 0, 9, 0.00,60.00,Thursday
6,20.
2,10, 1,10, 0,10, 0.00,60.00,Thursday
6,20.
2,10, 1,10, 0,11, 0.00,60.00,Thursday
6,20.
2,10, 1,10, 0,12, 0.00,60.00,Thursday
6,20.
2,10, 1,10, 0,13, 0.00,60.00,Thursday
6,20.
2,10, 1,10, 0,14, 0.00,60.00,Thursday
6,19.9999999999999
2,10, 1,10, 0,15, 0.00,60.00,Thursday
6,20.
2,10, 1,10, 0,16, 0.00,60.00,Thursday
6,20.
2,10, 1,10, 0,17, 0.00,60.00,Thursday
6,20.0000000000001
2,10, 1,10, 0,18, 0.00,60.00,Thursday
6,20.
2,10, 1,10, 0,19, 0.00,60.00,Thursday
6,20.0000000000002
2,10, 1,10, 0,20, 0.00,60.00,Thursday
6,20.
2,10, 1,10, 0,21, 0.00,60.00,Thursday
6,20.
2,10, 1,10, 0,22, 0.00,60.00,Thursday
6,20.0000000000001
2,10, 1,10, 0,23, 0.00,60.00,Thursday
6,20.0000000000001
2,10, 1,10, 0,24, 0.00,60.00,Thursday
6,20.0000000000001
2,11, 1,11, 0, 1, 0.00,60.00,Friday
6,20.0000000000001
2,11, 1,11, 0, 2, 0.00,60.00,Friday
6,20.
2,11, 1,11, 0, 3, 0.00,60.00,Friday
6,20.
2,11, 1,11, 0, 4, 0.00,60.00,Friday
6,20.
2,11, 1,11, 0, 5, 0.00,60.00,Friday
6,20.
2,11, 1,11, 0, 6, 0.00,60.00,Friday
6,20.0000000000001
2,11, 1,11, 0, 7, 0.00,60.00,Friday
6,20.0000000000001
2,11, 1,11, 0, 8, 0.00,60.00,Friday
6,20.0000000000001
2,11, 1,11, 0, 9, 0.00,60.00,Friday
6,20.
2,11, 1,11, 0,10, 0.00,60.00,Friday
6,20.
2,11, 1,11, 0,11, 0.00,60.00,Friday
6,20.
2,11, 1,11, 0,12, 0.00,60.00,Friday
6,20.
2,11, 1,11, 0,13, 0.00,60.00,Friday
6,20.
2,11, 1,11, 0,14, 0.00,60.00,Friday
6,20.
2,11, 1,11, 0,15, 0.00,60.00,Friday
6,19.9999999999999
2,11, 1,11, 0,16, 0.00,60.00,Friday
6,20.
2,11, 1,11, 0,17, 0.00,60.00,Friday
6,19.9999999999999
2,11, 1,11, 0,18, 0.00,60.00,Friday
6,19.9999999999999
2,11, 1,11, 0,19, 0.00,60.00,Friday
6,20.
2,11, 1,11, 0,20, 0.00,60.00,Friday
6,20.
2,11, 1,11, 0,21, 0.00,60.00,Friday
6,20.
2,11, 1,11, 0,22, 0.00,60.00,Friday
6,20.0000000000001
2,11, 1,11, 0,23, 0.00,60.00,Friday
6,20.0000000000001
2,11, 1,11, 0,24, 0.00,60.00,Friday
6,20.0000000000001
2,12, 1,12, 0, 1, 0.00,60.00,Saturday
6,20.0000000000001
2,12, 1,12, 0, 2, 0.00,60.00,Saturday
6,19.9999999999999
2,12, 1,12, 0, 3, 0.00,60.00,Saturday
6,19.9999999999998
2,12, 1,12, 0, 4, 0.00,60.00,Saturday
6,20.
2,12, 1,12, 0, 5, 0.00,60.00,Saturday
6,20.
2,12, 1,12, 0, 6, 0.00,60.00,Saturday
6,20.0000000000001
2,12, 1,12, 0, 7, 0.00,60.00,Saturday
6,20.0000000000001
2,12, 1,12, 0, 8, 0.00,60.00,Saturday
6,20.
2,12, 1,12, 0, 9, 0.00,60.00,Saturday
6,20.
2,12, 1,12, 0,10, 0.00,60.00,Saturday
6,20.
2,12, 1,12, 0,11, 0.00,60.00,Saturday
6,20.
2,12, 1,12, 0,12, 0.00,60.00,Saturday
6,19.9999999999999
2,12, 1,12, 0,13, 0.00,60.00,Saturday
6,20.
2,12, 1,12, 0,14, 0.00,60.00,Saturday
6,20.
2,12, 1,12, 0,15, 0.00,60.00,Saturday
6,19.9999999999999
2,12, 1,12, 0,16, 0.00,60.00,Saturday
6,20.
2,12, 1,12, 0,17, 0.00,60.00,Saturday
6,20.
2,12, 1,12, 0,18, 0.00,60.00,Saturday
6,19.9999999999999
2,12, 1,12, 0,19, 0.00,60.00,Saturday
6,20.
2,12, 1,12, 0,20, 0.00,60.00,Saturday
6,20.0000000000001
2,12, 1,12, 0,21, 0.00,60.00,Saturday
6,20.
2,12, 1,12, 0,22, 0.00,60.00,Saturday
6,20.0000000000001
2,12, 1,12, 0,23, 0.00,60.00,Saturday
6,20.0000000000001
2,12, 1,12, 0,24, 0.00,60.00,Saturday
6,20.
2,13, 1,13, 0, 1, 0.00,60.00,Sunday
6,20.
2,13, 1,13, 0, 2, 0.00,60.00,Sunday
6,20.
2,13, 1,13, 0, 3, 0.00,60.00,Sunday
6,20.
2,13, 1,13, 0, 4, 0.00,60.00,Sunday
6,20.
2,13, 1,13, 0, 5, 0.00,60.00,Sunday
6,20.
2,13, 1,13, 0, 6, 0.00,60.00,Sunday
6,20.
2,13, 1,13, 0, 7, 0.00,60.00,Sunday
6,19.9999999999999
2,13, 1,13, 0, 8, 0.00,60.00,Sunday
6,20.
2,13, 1,13, 0, 9, 0.00,60.00,Sunday
6,20.
2,13, 1,13, 0,10, 0.00,60.00,Sunday
6,20.
2,13, 1,13, 0,11, 0.00,60.00,Sunday
6,20.
2,13, 1,13, 0,12, 0.00,60.00,Sunday
6,20.
2,13, 1,13, 0,13, 0.00,60.00,Sunday
6,20.
2,13, 1,13, 0,14, 0.00,60.00,Sunday
6,20.
2,13, 1,13, 0,15, 0.00,60.00,Sunday
6,20.0000000000001
2,13, 1,13, 0,16, 0.00,60.00,Sunday
6,20.0000000000001
2,13, 1,13, 0,17, 0.00,60.00,Sunday
6,20.
2,13, 1,13, 0,18, 0.00,60.00,Sunday
6,20.
2,13, 1,13, 0,19, 0.00,60.00,Sunday
6,20.
2,13, 1,13, 0,20, 0.00,60.00,Sunday
6,20.0000000000001
2,13, 1,13, 0,21, 0.00,60.00,Sunday
6,20.
2,13, 1,13, 0,22, 0.00,60.00,Sunday
6,20.
2,13, 1,13, 0,23, 0.00,60.00,Sunday
6,20.
2,13, 1,13, 0,24, 0.00,60.00,Sunday
6,20.
2,14, 1,14, 0, 1, 0.00,60.00,Monday
6,19.9999999999999
2,14, 1,14, 0, 2, 0.00,60.00,Monday
6,20.0000000000001
2,14, 1,14, 0, 3, 0.00,60.00,Monday
6,19.9999999999999
2,14, 1,14, 0, 4, 0.00,60.00,Monday
6,20.
2,14, 1,14, 0, 5, 0.00,60.00,Monday
6,20.
2,14, 1,14, 0, 6, 0.00,60.00,Monday
6,20.
2,14, 1,14, 0, 7, 0.00,60.00,Monday
6,19.9999999999999
2,14, 1,14, 0, 8, 0.00,60.00,Monday
6,19.9999999999999
2,14, 1,14, 0, 9, 0.00,60.00,Monday
6,20.0000000000001
2,14, 1,14, 0,10, 0.00,60.00,Monday
6,20.
2,14, 1,14, 0,11, 0.00,60.00,Monday
6,20.
2,14, 1,14, 0,12, 0.00,60.00,Monday
6,19.9999999999999
2,14, 1,14, 0,13, 0.00,60.00,Monday
6,20.
2,14, 1,14, 0,14, 0.00,60.00,Monday
6,20.
2,14, 1,14, 0,15, 0.00,60.00,Monday
6,20.
2,14, 1,14, 0,16, 0.00,60.00,Monday
6,20.
2,14, 1,14, 0,17, 0.00,60.00,Monday
6,19.9999999999999
2,14, 1,14, 0,18, 0.00,60.00,Monday
6,20.
2,14, 1,14, 0,19, 0.00,60.00,Monday
6,19.9999999999999
2,14, 1,14, 0,20, 0.00,60.00,Monday
6,19.9999999999999
2,14, 1,14, 0,21, 0.00,60.00,Monday
6,19.9999999999999
2,14, 1,14, 0,22, 0.00,60.00,Monday
6,20.0000000000001
2,14, 1,14, 0,23, 0.00,60.00,Monday
6,19.9999999999999
2,14, 1,14, 0,24, 0.00,60.00,Monday
6,20.0000000000001
2,15, 1,15, 0, 1, 0.00,60.00,Tuesday
6,20.0000000000001
2,15, 1,15, 0, 2, 0.00,60.00,Tuesday
6,20.0000000000001
2,15, 1,15, 0, 3, 0.00,60.00,Tuesday
6,20.0000000000001
2,15, 1,15, 0, 4, 0.00,60.00,Tuesday
6,20.0000000000001
2,15, 1,15, 0, 5, 0.00,60.00,Tuesday
6,20.0000000000001
2,15, 1,15, 0, 6, 0.00,60.00,Tuesday
6,20.
2,15, 1,15, 0, 7, 0.00,60.00,Tuesday
6,19.9999999999999
2,15, 1,15, 0, 8, 0.00,60.00,Tuesday
6,20.
2,15, 1,15, 0, 9, 0.00,60.00,Tuesday
6,20.0000000000001
2,15, 1,15, 0,10, 0.00,60.00,Tuesday
6,20.
2,15, 1,15, 0,11, 0.00,60.00,Tuesday
6,20.
2,15, 1,15, 0,12, 0.00,60.00,Tuesday
6,20.0000000000001
2,15, 1,15, 0,13, 0.00,60.00,Tuesday
6,20.
2,15, 1,15, 0,14, 0.00,60.00,Tuesday
6,19.9999999999999
2,15, 1,15, 0,15, 0.00,60.00,Tuesday
6,19.9999999999999
2,15, 1,15, 0,16, 0.00,60.00,Tuesday
6,20.
2,15, 1,15, 0,17, 0.00,60.00,Tuesday
6,19.9999999999999
2,15, 1,15, 0,18, 0.00,60.00,Tuesday
6,20.
2,15, 1,15, 0,19, 0.00,60.00,Tuesday
6,19.9999999999999
2,15, 1,15, 0,20, 0.00,60.00,Tuesday
6,19.9999999999999
2,15, 1,15, 0,21, 0.00,60.00,Tuesday
6,19.9999999999999
2,15, 1,15, 0,22, 0.00,60.00,Tuesday
6,20.
2,15, 1,15, 0,23, 0.00,60.00,Tuesday
6,20.
2,15, 1,15, 0,24, 0.00,60.00,Tuesday
6,20.
2,16, 1,16, 0, 1, 0.00,60.00,Wednesday
6,20.0000000000001
2,16, 1,16, 0, 2, 0.00,60.00,Wednesday
6,20.0000000000001
2,16, 1,16, 0, 3, 0.00,60.00,Wednesday
6,19.9999999999999
2,16, 1,16, 0, 4, 0.00,60.00,Wednesday
6,19.9999999999999
2,16, 1,16, 0, 5, 0.00,60.00,Wednesday
6,20.0000000000001
2,16, 1,16, 0, 6, 0.00,60.00,Wednesday
6,20.0000000000001
2,16, 1,16, 0, 7, 0.00,60.00,Wednesday
6,19.9999999999999
2,16, 1,16, 0, 8, 0.00,60.00,Wednesday
6,19.9999999999999
2,16, 1,16, 0, 9, 0.00,60.00,Wednesday
6,20.
2,16, 1,16, 0,10, 0.00,60.00,Wednesday
6,20.
2,16, 1,16, 0,11, 0.00,60.00,Wednesday
6,20.
2,16, 1,16, 0,12, 0.00,60.00,Wednesday
6,20.
2,16, 1,16, 0,13, 0.00,60.00,Wednesday
6,20.
2,16, 1,16, 0,14, 0.00,60.00,Wednesday
6,20.
2,16, 1,16, 0,15, 0.00,60.00,Wednesday
6,20.
2,16, 1,16, 0,16, 0.00,60.00,Wednesday
6,20.
2,16, 1,16, 0,17, 0.00,60.00,Wednesday
6,19.9999999999999
2,16, 1,16, 0,18, 0.00,60.00,Wednesday
6,20.
2,16, 1,16, 0,19, 0.00,60.00,Wednesday
6,19.9999999999999
2,16, 1,16, 0,20, 0.00,60.00,Wednesday
6,20.0000000000001
2,16, 1,16, 0,21, 0.00,60.00,Wednesday
6,20.
2,16, 1,16, 0,22, 0.00,60.00,Wednesday
6,19.9999999999999
2,16, 1,16, 0,23, 0.00,60.00,Wednesday
6,19.9999999999999
2,16, 1,16, 0,24, 0.00,60.00,Wednesday
6,19.9999999999999
2,17, 1,17, 0, 1, 0.00,60.00,Thursday
6,20.0000000000001
2,17, 1,17, 0, 2, 0.00,60.00,Thursday
6,20.0000000000001
2,17, 1,17, 0, 3, 0.00,60.00,Thursday
6,20.0000000000001
2,17, 1,17, 0, 4, 0.00,60.00,Thursday
6,20.0000000000001
2,17, 1,17, 0, 5, 0.00,60.00,Thursday
6,19.9999999999999
2,17, 1,17, 0, 6, 0.00,60.00,Thursday
6,20.0000000000002
2,17, 1,17, 0, 7, 0.00,60.00,Thursday
6,20.
2,17, 1,17, 0, 8, 0.00,60.00,Thursday
6,20.
2,17, 1,17, 0, 9, 0.00,60.00,Thursday
6,19.9999999999998
2,17, 1,17, 0,10, 0.00,60.00,Thursday
6,19.9999999999999
2,17, 1,17, 0,11, 0.00,60.00,Thursday
6,20.
2,17, 1,17, 0,12, 0.00,60.00,Thursday
6,20.0000000000001
2,17, 1,17, 0,13, 0.00,60.00,Thursday
6,20.
2,17, 1,17, 0,14, 0.00,60.00,Thursday
6,20.
2,17, 1,17, 0,15, 0.00,60.00,Thursday
6,20.
2,17, 1,17, 0,16, 0.00,60.00,Thursday
6,20.0000000000001
2,17, 1,17, 0,17, 0.00,60.00,Thursday
6,20.
2,17, 1,17, 0,18, 0.00,60.00,Thursday
6,20.
2,17, 1,17, 0,19, 0.00,60.00,Thursday
6,19.9999999999999
2,17, 1,17, 0,20, 0.00,60.00,Thursday
6,20.0000000000001
2,17, 1,17, 0,21, 0.00,60.00,Thursday
6,20.0000000000001
2,17, 1,17, 0,22, 0.00,60.00,Thursday
6,19.9999999999999
2,17, 1,17, 0,23, 0.00,60.00,Thursday
6,20.
2,17, 1,17, 0,24, 0.00,60.00,Thursday
6,20.0000000000001
2,18, 1,18, 0, 1, 0.00,60.00,Friday
6,20.0000000000001
2,18, 1,18, 0, 2, 0.00,60.00,Friday
6,19.9999999999999
2,18, 1,18, 0, 3, 0.00,60.00,Friday
6,19.9999999999999
2,18, 1,18, 0, 4, 0.00,60.00,Friday
6,20.0000000000001
2,18, 1,18, 0, 5, 0.00,60.00,Friday
6,19.9999999999999
2,18, 1,18, 0, 6, 0.00,60.00,Friday
6,20.
2,18, 1,18, 0, 7, 0.00,60.00,Friday
6,20.
2,18, 1,18, 0, 8, 0.00,60.00,Friday
6,20.0000000000001
2,18, 1,18, 0, 9, 0.00,60.00,Friday
6,19.9999999999999
2,18, 1,18, 0,10, 0.00,60.00,Friday
6,20.
2,18, 1,18, 0,11, 0.00,60.00,Friday
6,20.0000000000001
2,18, 1,18, 0,12, 0.00,60.00,Friday
6,19.9999999999999
2,18, 1,18, 0,13, 0.00,60.00,Friday
6,20.
2,18, 1,18, 0,14, 0.00,60.00,Friday
6,20.
2,18, 1,18, 0,15, 0.00,60.00,Friday
6,20.
2,18, 1,18, 0,16, 0.00,60.00,Friday
6,20.
2,18, 1,18, 0,17, 0.00,60.00,Friday
6,20.
2,18, 1,18, 0,18, 0.00,60.00,Friday
6,20.
2,18, 1,18, 0,19, 0.00,60.00,Friday
6,20.0000000000001
2,18, 1,18, 0,20, 0.00,60.00,Friday
6,19.9999999999999
2,18, 1,18, 0,21, 0.00,60.00,Friday
6,20.0000000000001
2,18, 1,18, 0,22, 0.00,60.00,Friday
6,20.0000000000001
2,18, 1,18, 0,23, 0.00,60.00,Friday
6,19.9999999999999
2,18, 1,18, 0,24, 0.00,60.00,Friday
6,20.0000000000001
2,19, 1,19, 0, 1, 0.00,60.00,Saturday
6,20.0000000000001
2,19, 1,19, 0, 2, 0.00,60.00,Saturday
6,20.0000000000001
2,19, 1,19, 0, 3, 0.00,60.00,Saturday
6,20.0000000000001
2,19, 1,19, 0, 4, 0.00,60.00,Saturday
6,20.0000000000001
2,19, 1,19, 0, 5, 0.00,60.00,Saturday
6,19.9999999999999
2,19, 1,19, 0, 6, 0.00,60.00,Saturday
6,20.
2,19, 1,19, 0, 7, 0.00,60.00,Saturday
6,20.0000000000001
2,19, 1,19, 0, 8, 0.00,60.00,Saturday
6,19.9999999999999
2,19, 1,19, 0, 9, 0.00,60.00,Saturday
6,20.0000000000001
2,19, 1,19, 0,10, 0.00,60.00,Saturday
6,20.0000000000001
2,19, 1,19, 0,11, 0.00,60.00,Saturday
6,20.0000000000001
2,19, 1,19, 0,12, 0.00,60.00,Saturday
6,20.
2,19, 1,19, 0,13, 0.00,60.00,Saturday
6,20.
2,19, 1,19, 0,14, 0.00,60.00,Saturday
6,19.9999999999998
2,19, 1,19, 0,15, 0.00,60.00,Saturday
6,20.
2,19, 1,19, 0,16, 0.00,60.00,Saturday
6,20.
2,19, 1,19, 0,17, 0.00,60.00,Saturday
6,19.9999999999999
2,19, 1,19, 0,18, 0.00,60.00,Saturday
6,20.0000000000001
2,19, 1,19, 0,19, 0.00,60.00,Saturday
6,19.9999999999999
2,19, 1,19, 0,20, 0.00,60.00,Saturday
6,20.
2,19, 1,19, 0,21, 0.00,60.00,Saturday
6,19.9999999999998
2,19, 1,19, 0,22, 0.00,60.00,Saturday
6,19.9999999999999
2,19, 1,19, 0,23, 0.00,60.00,Saturday
6,20.0000000000001
2,19, 1,19, 0,24, 0.00,60.00,Saturday
6,20.
2,20, 1,20, 0, 1, 0.00,60.00,Sunday
6,20.
2,20, 1,20, 0, 2, 0.00,60.00,Sunday
6,19.9999999999998
2,20, 1,20, 0, 3, 0.00,60.00,Sunday
6,19.9999999999999
2,20, 1,20, 0, 4, 0.00,60.00,Sunday
6,20.
2,20, 1,20, 0, 5, 0.00,60.00,Sunday
6,19.9999999999999
2,20, 1,20, 0, 6, 0.00,60.00,Sunday
6,19.9999999999999
2,20, 1,20, 0, 7, 0.00,60.00,Sunday
6,20.0000000000001
2,20, 1,20, 0, 8, 0.00,60.00,Sunday
6,20.
2,20, 1,20, 0, 9, 0.00,60.00,Sunday
6,20.
2,20, 1,20, 0,10, 0.00,60.00,Sunday
6,19.9999999999999
2,20, 1,20, 0,11, 0.00,60.00,Sunday
6,20.0000000000002
2,20, 1,20, 0,12, 0.00,60.00,Sunday
6,20.0000000000001
2,20, 1,20, 0,13, 0.00,60.00,Sunday
6,20.0000000000001
2,20, 1,20, 0,14, 0.00,60.00,Sunday
6,20.0000000000001
2,20, 1,20, 0,15, 0.00,60.00,Sunday
6,20.
2,20, 1,20, 0,16, 0.00,60.00,Sunday
6,19.9999999999999
2,20, 1,20, 0,17, 0.00,60.00,Sunday
6,20.0000000000002
2,20, 1,20, 0,18, 0.00,60.00,Sunday
6,19.9999999999999
2,20, 1,20, 0,19, 0.00,60.00,Sunday
6,20.0000000000001
2,20, 1,20, 0,20, 0.00,60.00,Sunday
6,20.0000000000001
2,20, 1,20, 0,21, 0.00,60.00,Sunday
6,20.0000000000001
2,20, 1,20, 0,22, 0.00,60.00,Sunday
6,20.0000000000001
2,20, 1,20, 0,23, 0.00,60.00,Sunday
6,20.0000000000002
2,20, 1,20, 0,24, 0.00,60.00,Sunday
6,20.
2,21, 1,21, 0, 1, 0.00,60.00,Monday
6,19.9999999999999
2,21, 1,21, 0, 2, 0.00,60.00,Monday
6,19.9999999999999
2,21, 1,21, 0, 3, 0.00,60.00,Monday
6,20.0000000000002
2,21, 1,21, 0, 4, 0.00,60.00,Monday
6,20.0000000000001
2,21, 1,21, 0, 5, 0.00,60.00,Monday
6,19.9999999999999
2,21, 1,21, 0, 6, 0.00,60.00,Monday
6,20.0000000000001
2,21, 1,21, 0, 7, 0.00,60.00,Monday
6,19.9999999999999
2,21, 1,21, 0, 8, 0.00,60.00,Monday
6,19.9999999999999
2,21, 1,21, 0, 9, 0.00,60.00,Monday
6,20.0000000000001
2,21, 1,21, 0,10, 0.00,60.00,Monday
6,20.
2,21, 1,21, 0,11, 0.00,60.00,Monday
6,20.
2,21, 1,21, 0,12, 0.00,60.00,Monday
6,20.
2,21, 1,21, 0,13, 0.00,60.00,Monday
6,20.
2,21, 1,21, 0,14, 0.00,60.00,Monday
6,20.0000000000001
2,21, 1,21, 0,15, 0.00,60.00,Monday
6,20.0000000000001
2,21, 1,21, 0,16, 0.00,60.00,Monday
6,20.0000000000001
2,21, 1,21, 0,17, 0.00,60.00,Monday
6,20.0000000000001
2,21, 1,21, 0,18, 0.00,60.00,Monday
6,20.
2,21, 1,21, 0,19, 0.00,60.00,Monday
6,20.0000000000001
2,21, 1,21, 0,20, 0.00,60.00,Monday
6,20.
2,21, 1,21, 0,21, 0.00,60.00,Monday
6,20.0000000000001
2,21, 1,21, 0,22, 0.00,60.00,Monday
6,20.
2,21, 1,21, 0,23, 0.00,60.00,Monday
6,20.
2,21, 1,21, 0,24, 0.00,60.00,Monday
6,20.
2,22, 1,22, 0, 1, 0.00,60.00,Tuesday
6,19.9999999999998
2,22, 1,22, 0, 2, 0.00,60.00,Tuesday
6,20.
2,22, 1,22, 0, 3, 0.00,60.00,Tuesday
6,19.9999999999998
2,22, 1,22, 0, 4, 0.00,60.00,Tuesday
6,20.
2,22, 1,22, 0, 5, 0.00,60.00,Tuesday
6,20.
2,22, 1,22, 0, 6, 0.00,60.00,Tuesday
6,19.9999999999999
2,22, 1,22, 0, 7, 0.00,60.00,Tuesday
6,20.
2,22, 1,22, 0, 8, 0.00,60.00,Tuesday
6,20.
2,22, 1,22, 0, 9, 0.00,60.00,Tuesday
6,20.0000000000001
2,22, 1,22, 0,10, 0.00,60.00,Tuesday
6,20.0000000000001
2,22, 1,22, 0,11, 0.00,60.00,Tuesday
6,20.0000000000001
2,22, 1,22, 0,12, 0.00,60.00,Tuesday
6,20.0000000000001
2,22, 1,22, 0,13, 0.00,60.00,Tuesday
6,20.0000000000001
2,22, 1,22, 0,14, 0.00,60.00,Tuesday
6,19.9999999999999
2,22, 1,22, 0,15, 0.00,60.00,Tuesday
6,20.
2,22, 1,22, 0,16, 0.00,60.00,Tuesday
6,19.9999999999999
2,22, 1,22, 0,17, 0.00,60.00,Tuesday
6,20.
2,22, 1,22, 0,18, 0.00,60.00,Tuesday
6,20.
2,22, 1,22, 0,19, 0.00,60.00,Tuesday
6,20.
2,22, 1,22, 0,20, 0.00,60.00,Tuesday
6,20.0000000000001
2,22, 1,22, 0,21, 0.00,60.00,Tuesday
6,20.
2,22, 1,22, 0,22, 0.00,60.00,Tuesday
6,20.
2,22, 1,22, 0,23, 0.00,60.00,Tuesday
6,19.9999999999999
2,22, 1,22, 0,24, 0.00,60.00,Tuesday
6,20.0000000000001
2,23, 1,23, 0, 1, 0.00,60.00,Wednesday
6,20.
2,23, 1,23, 0, 2, 0.00,60.00,Wednesday
6,19.9999999999999
2,23, 1,23, 0, 3, 0.00,60.00,Wednesday
6,20.
2,23, 1,23, 0, 4, 0.00,60.00,Wednesday
6,20.
2,23, 1,23, 0, 5, 0.00,60.00,Wednesday
6,20.
2,23, 1,23, 0, 6, 0.00,60.00,Wednesday
6,19.9999999999998
2,23, 1,23, 0, 7, 0.00,60.00,Wednesday
6,20.
2,23, 1,23, 0, 8, 0.00,60.00,Wednesday
6,20.0000000000001
2,23, 1,23, 0, 9, 0.00,60.00,Wednesday
6,20.
2,23, 1,23, 0,10, 0.00,60.00,Wednesday
6,20.
2,23, 1,23, 0,11, 0.00,60.00,Wednesday
6,20.
2,23, 1,23, 0,12, 0.00,60.00,Wednesday
6,20.
2,23, 1,23, 0,13, 0.00,60.00,Wednesday
6,20.
2,23, 1,23, 0,14, 0.00,60.00,Wednesday
6,20.
2,23, 1,23, 0,15, 0.00,60.00,Wednesday
6,20.
2,23, 1,23, 0,16, 0.00,60.00,Wednesday
6,20.
2,23, 1,23, 0,17, 0.00,60.00,Wednesday
6,20.
2,23, 1,23, 0,18, 0.00,60.00,Wednesday
6,20.
2,23, 1,23, 0,19, 0.00,60.00,Wednesday
6,20.
2,23, 1,23, 0,20, 0.00,60.00,Wednesday
6,20.0000000000001
2,23, 1,23, 0,21, 0.00,60.00,Wednesday
6,20.
2,23, 1,23, 0,22, 0.00,60.00,Wednesday
6,19.9999999999999
2,23, 1,23, 0,23, 0.00,60.00,Wednesday
6,20.
2,23, 1,23, 0,24, 0.00,60.00,Wednesday
6,20.0000000000001
2,24, 1,24, 0, 1, 0.00,60.00,Thursday
6,20.0000000000001
2,24, 1,24, 0, 2, 0.00,60.00,Thursday
6,20.
2,24, 1,24, 0, 3, 0.00,60.00,Thursday
6,20.
2,24, 1,24, 0, 4, 0.00,60.00,Thursday
6,19.9999999999999
2,24, 1,24, 0, 5, 0.00,60.00,Thursday
6,20.0000000000001
2,24, 1,24, 0, 6, 0.00,60.00,Thursday
6,19.9999999999998
2,24, 1,24, 0, 7, 0.00,60.00,Thursday
6,19.9999999999999
2,24, 1,24, 0, 8, 0.00,60.00,Thursday
6,20.
2,24, 1,24, 0, 9, 0.00,60.00,Thursday
6,19.9999999999999
2,24, 1,24, 0,10, 0.00,60.00,Thursday
6,20.0000000000001
2,24, 1,24, 0,11, 0.00,60.00,Thursday
6,20.
2,24, 1,24, 0,12, 0.00,60.00,Thursday
6,20.0000000000001
2,24, 1,24, 0,13, 0.00,60.00,Thursday
6,20.0000000000001
2,24, 1,24, 0,14, 0.00,60.00,Thursday
6,20.
2,24, 1,24, 0,15, 0.00,60.00,Thursday
6,20.
2,24, 1,24, 0,16, 0.00,60.00,Thursday
6,19.9999999999999
2,24, 1,24, 0,17, 0.00,60.00,Thursday
6,20.
2,24, 1,24, 0,18, 0.00,60.00,Thursday
6,20.0000000000001
2,24, 1,24, 0,19, 0.00,60.00,Thursday
6,20.0000000000001
2,24, 1,24, 0,20, 0.00,60.00,Thursday
6,20.
2,24, 1,24, 0,21, 0.00,60.00,Thursday
6,20.
2,24, 1,24, 0,22, 0.00,60.00,Thursday
6,20.
2,24, 1,24, 0,23, 0.00,60.00,Thursday
6,19.9999999999999
2,24, 1,24, 0,24, 0.00,60.00,Thursday
6,20.0000000000001
2,25, 1,25, 0, 1, 0.00,60.00,Friday
6,20.
2,25, 1,25, 0, 2, 0.00,60.00,Friday
6,20.0000000000001
2,25, 1,25, 0, 3, 0.00,60.00,Friday
6,19.9999999999999
2,25, 1,25, 0, 4, 0.00,60.00,Friday
6,19.9999999999999
2,25, 1,25, 0, 5, 0.00,60.00,Friday
6,20.0000000000001
2,25, 1,25, 0, 6, 0.00,60.00,Friday
6,20.0000000000001
2,25, 1,25, 0, 7, 0.00,60.00,Friday
6,20.0000000000001
2,25, 1,25, 0, 8, 0.00,60.00,Friday
6,20.
2,25, 1,25, 0, 9, 0.00,60.00,Friday
6,20.
2,25, 1,25, 0,10, 0.00,60.00,Friday
6,20.0000000000001
2,25, 1,25, 0,11, 0.00,60.00,Friday
6,20.
2,25, 1,25, 0,12, 0.00,60.00,Friday
6,20.0000000000001
2,25, 1,25, 0,13, 0.00,60.00,Friday
6,20.
2,25, 1,25, 0,14, 0.00,60.00,Friday
6,19.9999999999999
2,25, 1,25, 0,15, 0.00,60.00,Friday
6,20.0000000000001
2,25, 1,25, 0,16, 0.00,60.00,Friday
6,20.0000000000001
2,25, 1,25, 0,17, 0.00,60.00,Friday
6,20.
2,25, 1,25, 0,18, 0.00,60.00,Friday
6,20.
2,25, 1,25, 0,19, 0.00,60.00,Friday
6,20.0000000000001